 # C12 H14 O10
  
        9216  atoms
           3  atom types
 
      0.000000000000      31.136000000000  xlo xhi
      0.000000000000      32.589878087490  ylo yhi
      0.000000000000      83.040000000000  zlo zhi
     -3.741959679438       0.000000000000       0.000000000000  xy xz yz
 
Masses
 
            1   12.01100000             # C
            2   1.00800000              # H
            3   15.99900000             # O
 
Atoms # charge
 
         1    1   0.000000       -0.787223343225       7.805275801954       0.449454000000
         2    2   0.000000        0.157846090634       7.994297094861       0.620724000000
         3    1   0.000000        6.818256225395       6.648335129848       9.844392000000
         4    2   0.000000        5.878339035694       6.373765406961       9.813252000000
         5    1   0.000000       -0.495967800839       7.031266197376       8.461776000000
         6    2   0.000000        0.485868196538       7.069559304129       8.470080000000
         7    1   0.000000        7.701447302404       0.244424085656       8.044500000000
         8    2   0.000000        6.743160977410       0.143395463585       7.862850000000
         9    1   0.000000        0.053641102742       1.295447653978       9.101184000000
        10    2   0.000000        1.002696085594       1.483654199933       9.248580000000
        11    1   0.000000        7.119730715565       2.599042777477       8.791860000000
        12    2   0.000000        6.205703732714       2.410836231522       8.534436000000
        13    2   0.000000        7.104969503030       3.154700198869       9.585930000000
        14    3   0.000000       -0.166922085024       5.589164092005      10.376886000000
        15    3   0.000000        6.882504949224       6.020979976664       7.516158000000
        16    3   0.000000        0.534483866892       0.700682378881       6.825888000000
        17    3   0.000000        7.255482497934       0.806599482665      10.324986000000
        18    3   0.000000       -0.003370437703       3.283430217315       7.743480000000
        19    1   0.000000        3.723224086464       3.707098632452       3.158634000000
        20    2   0.000000        4.687714652993       3.760871931296       3.321600000000
        21    1   0.000000        3.400101303469       2.589265814051       2.173572000000
        22    2   0.000000        2.422759182507       2.491496179789       2.129976000000
        23    1   0.000000        3.902697159091       2.957531436440       0.794070000000
        24    2   0.000000        4.876645033077       3.057745311559       0.823134000000
        25    1   0.000000        3.259820302154       4.285568968505       0.389250000000
        26    2   0.000000        2.291134130184       4.186984587290       0.299982000000
        27    1   0.000000        3.596152926684       5.356146463679       1.440744000000
        28    2   0.000000        4.552988384736       5.564721683439       1.422060000000
        29    1   0.000000        2.755943715315       6.640187660326       1.167750000000
        30    2   0.000000        1.866929655854       6.390060346005       0.879186000000
        31    2   0.000000        2.674621348347       7.151848746300       1.988808000000
        32    3   0.000000        3.954660673303       1.352479940631       2.615760000000
        33    3   0.000000        3.565054848673       1.898360398596      10.295922000000
        34    3   0.000000        3.834194906962       4.774417139817       9.543372000000
        35    3   0.000000        3.207397618645       4.945513999777       2.739282000000
        36    3   0.000000        3.363890213248       7.446787142991       0.176460000000
        37    1   0.000000        7.635733423366       0.342193719919       5.639454000000
        38    2   0.000000        6.690663989507       0.153172427011       5.810724000000
        39    1   0.000000        0.030253854746       1.499134392025       4.654392000000
        40    2   0.000000        0.970171044447       1.773704114912       4.623252000000
        41    1   0.000000        7.344477880979       1.116203324497       3.271776000000
        42    2   0.000000        6.362641883603       1.077910217744       3.280080000000
        43    1   0.000000       -0.852937222264       7.903045436216       2.854500000000
        44    2   0.000000        0.105349102730       8.004074058288       2.672850000000
        45    1   0.000000        6.794868977398       6.852021867895       3.911184000000
        46    2   0.000000        5.845813994547       6.663815321940       4.058580000000
        47    1   0.000000       -0.271220635424       5.548426744395       3.601860000000
        48    2   0.000000        0.642806347427       5.736633290350       3.344436000000
        49    2   0.000000       -0.256459422890       4.992769323003       4.395930000000
        50    3   0.000000        7.015432165164       2.558305429868       5.186886000000
        51    3   0.000000       -0.033994869083       2.126489545209       2.326158000000
        52    3   0.000000        6.314026213248       7.446787142991       1.635888000000
        53    3   0.000000       -0.406972417793       7.340870039207       5.134986000000
        54    3   0.000000        6.851880517844       4.864039304558       2.553480000000
        55    1   0.000000        3.125285993677       4.440370889421       8.348634000000
        56    2   0.000000        2.160795427148       4.386597590576       8.511600000000
        57    1   0.000000        3.448408776672       5.558203707821       7.363572000000
        58    2   0.000000        4.425750897634       5.655973342084       7.319976000000
        59    1   0.000000        2.945812921050       5.189938085433       5.984070000000
        60    2   0.000000        1.971865047064       5.089724210314       6.013134000000
        61    1   0.000000        3.588689777987       3.861900553368       5.579250000000
        62    2   0.000000        4.557375949956       3.960484934582       5.489982000000
        63    1   0.000000        3.252357153456       2.791323058194       6.630744000000
        64    2   0.000000        2.295521695405       2.582747838434       6.612060000000
        65    1   0.000000        4.092566364826       1.507281861546       6.357750000000
        66    2   0.000000        4.981580424286       1.757409175868       6.069186000000
        67    2   0.000000        4.173888731793       0.995620775573       7.178808000000
        68    3   0.000000        2.893849406837       6.794989581242       7.805760000000
        69    3   0.000000        3.283455231468       6.249109123276       5.105922000000
        70    3   0.000000        3.014315173178       3.373052382055       4.353372000000
        71    3   0.000000        3.641112461495       3.201955522096       7.929282000000
        72    3   0.000000        3.484619866892       0.700682378881       5.366460000000
        73    1   0.000000        6.996776656775       7.805275801954       0.449454000000
        74    2   0.000000        7.941846090634       7.994297094861       0.620724000000
        75    1   0.000000       14.602256225395       6.648335129848       9.844392000000
        76    2   0.000000       13.662339035694       6.373765406961       9.813252000000
        77    1   0.000000        7.288032199161       7.031266197376       8.461776000000
        78    2   0.000000        8.269868196538       7.069559304129       8.470080000000
        79    1   0.000000       15.485447302404       0.244424085656       8.044500000000
        80    2   0.000000       14.527160977410       0.143395463585       7.862850000000
        81    1   0.000000        7.837641102742       1.295447653978       9.101184000000
        82    2   0.000000        8.786696085594       1.483654199933       9.248580000000
        83    1   0.000000       14.903730715565       2.599042777477       8.791860000000
        84    2   0.000000       13.989703732714       2.410836231522       8.534436000000
        85    2   0.000000       14.888969503030       3.154700198869       9.585930000000
        86    3   0.000000        7.617077914976       5.589164092005      10.376886000000
        87    3   0.000000       14.666504949224       6.020979976664       7.516158000000
        88    3   0.000000        8.318483866892       0.700682378881       6.825888000000
        89    3   0.000000       15.039482497934       0.806599482665      10.324986000000
        90    3   0.000000        7.780629562297       3.283430217315       7.743480000000
        91    1   0.000000       11.507224086464       3.707098632452       3.158634000000
        92    2   0.000000       12.471714652993       3.760871931296       3.321600000000
        93    1   0.000000       11.184101303469       2.589265814051       2.173572000000
        94    2   0.000000       10.206759182507       2.491496179789       2.129976000000
        95    1   0.000000       11.686697159091       2.957531436440       0.794070000000
        96    2   0.000000       12.660645033077       3.057745311559       0.823134000000
        97    1   0.000000       11.043820302154       4.285568968505       0.389250000000
        98    2   0.000000       10.075134130184       4.186984587290       0.299982000000
        99    1   0.000000       11.380152926684       5.356146463679       1.440744000000
       100    2   0.000000       12.336988384736       5.564721683439       1.422060000000
       101    1   0.000000       10.539943715315       6.640187660326       1.167750000000
       102    2   0.000000        9.650929655854       6.390060346005       0.879186000000
       103    2   0.000000       10.458621348347       7.151848746300       1.988808000000
       104    3   0.000000       11.738660673303       1.352479940631       2.615760000000
       105    3   0.000000       11.349054848673       1.898360398596      10.295922000000
       106    3   0.000000       11.618194906962       4.774417139817       9.543372000000
       107    3   0.000000       10.991397618645       4.945513999777       2.739282000000
       108    3   0.000000       11.147890213248       7.446787142991       0.176460000000
       109    1   0.000000       15.419733423366       0.342193719919       5.639454000000
       110    2   0.000000       14.474663989507       0.153172427011       5.810724000000
       111    1   0.000000        7.814253854746       1.499134392025       4.654392000000
       112    2   0.000000        8.754171044447       1.773704114912       4.623252000000
       113    1   0.000000       15.128477880979       1.116203324497       3.271776000000
       114    2   0.000000       14.146641883603       1.077910217744       3.280080000000
       115    1   0.000000        6.931062777736       7.903045436216       2.854500000000
       116    2   0.000000        7.889349102730       8.004074058288       2.672850000000
       117    1   0.000000       14.578868977398       6.852021867895       3.911184000000
       118    2   0.000000       13.629813994547       6.663815321940       4.058580000000
       119    1   0.000000        7.512779364576       5.548426744395       3.601860000000
       120    2   0.000000        8.426806347427       5.736633290350       3.344436000000
       121    2   0.000000        7.527540577110       4.992769323003       4.395930000000
       122    3   0.000000       14.799432165164       2.558305429868       5.186886000000
       123    3   0.000000        7.750005130917       2.126489545209       2.326158000000
       124    3   0.000000       14.098026213248       7.446787142991       1.635888000000
       125    3   0.000000        7.377027582207       7.340870039207       5.134986000000
       126    3   0.000000       14.635880517844       4.864039304558       2.553480000000
       127    1   0.000000       10.909285993677       4.440370889421       8.348634000000
       128    2   0.000000        9.944795427148       4.386597590576       8.511600000000
       129    1   0.000000       11.232408776672       5.558203707821       7.363572000000
       130    2   0.000000       12.209750897634       5.655973342084       7.319976000000
       131    1   0.000000       10.729812921050       5.189938085433       5.984070000000
       132    2   0.000000        9.755865047064       5.089724210314       6.013134000000
       133    1   0.000000       11.372689777987       3.861900553368       5.579250000000
       134    2   0.000000       12.341375949956       3.960484934582       5.489982000000
       135    1   0.000000       11.036357153456       2.791323058194       6.630744000000
       136    2   0.000000       10.079521695405       2.582747838434       6.612060000000
       137    1   0.000000       11.876566364826       1.507281861546       6.357750000000
       138    2   0.000000       12.765580424286       1.757409175868       6.069186000000
       139    2   0.000000       11.957888731793       0.995620775573       7.178808000000
       140    3   0.000000       10.677849406837       6.794989581242       7.805760000000
       141    3   0.000000       11.067455231468       6.249109123276       5.105922000000
       142    3   0.000000       10.798315173178       3.373052382055       4.353372000000
       143    3   0.000000       11.425112461495       3.201955522096       7.929282000000
       144    3   0.000000       11.268619866892       0.700682378881       5.366460000000
       145    1   0.000000       14.780776656775       7.805275801954       0.449454000000
       146    2   0.000000       15.725846090634       7.994297094861       0.620724000000
       147    1   0.000000       22.386256225395       6.648335129848       9.844392000000
       148    2   0.000000       21.446339035694       6.373765406961       9.813252000000
       149    1   0.000000       15.072032199161       7.031266197376       8.461776000000
       150    2   0.000000       16.053868196538       7.069559304129       8.470080000000
       151    1   0.000000       23.269447302404       0.244424085656       8.044500000000
       152    2   0.000000       22.311160977410       0.143395463585       7.862850000000
       153    1   0.000000       15.621641102742       1.295447653978       9.101184000000
       154    2   0.000000       16.570696085594       1.483654199933       9.248580000000
       155    1   0.000000       22.687730715565       2.599042777477       8.791860000000
       156    2   0.000000       21.773703732714       2.410836231522       8.534436000000
       157    2   0.000000       22.672969503030       3.154700198869       9.585930000000
       158    3   0.000000       15.401077914976       5.589164092005      10.376886000000
       159    3   0.000000       22.450504949224       6.020979976664       7.516158000000
       160    3   0.000000       16.102483866892       0.700682378881       6.825888000000
       161    3   0.000000       22.823482497934       0.806599482665      10.324986000000
       162    3   0.000000       15.564629562297       3.283430217315       7.743480000000
       163    1   0.000000       19.291224086464       3.707098632452       3.158634000000
       164    2   0.000000       20.255714652993       3.760871931296       3.321600000000
       165    1   0.000000       18.968101303469       2.589265814051       2.173572000000
       166    2   0.000000       17.990759182507       2.491496179789       2.129976000000
       167    1   0.000000       19.470697159091       2.957531436440       0.794070000000
       168    2   0.000000       20.444645033077       3.057745311559       0.823134000000
       169    1   0.000000       18.827820302154       4.285568968505       0.389250000000
       170    2   0.000000       17.859134130184       4.186984587290       0.299982000000
       171    1   0.000000       19.164152926684       5.356146463679       1.440744000000
       172    2   0.000000       20.120988384736       5.564721683439       1.422060000000
       173    1   0.000000       18.323943715315       6.640187660326       1.167750000000
       174    2   0.000000       17.434929655854       6.390060346005       0.879186000000
       175    2   0.000000       18.242621348347       7.151848746300       1.988808000000
       176    3   0.000000       19.522660673303       1.352479940631       2.615760000000
       177    3   0.000000       19.133054848673       1.898360398596      10.295922000000
       178    3   0.000000       19.402194906962       4.774417139817       9.543372000000
       179    3   0.000000       18.775397618645       4.945513999777       2.739282000000
       180    3   0.000000       18.931890213248       7.446787142991       0.176460000000
       181    1   0.000000       23.203733423366       0.342193719919       5.639454000000
       182    2   0.000000       22.258663989507       0.153172427011       5.810724000000
       183    1   0.000000       15.598253854746       1.499134392025       4.654392000000
       184    2   0.000000       16.538171044447       1.773704114912       4.623252000000
       185    1   0.000000       22.912477880979       1.116203324497       3.271776000000
       186    2   0.000000       21.930641883603       1.077910217744       3.280080000000
       187    1   0.000000       14.715062777736       7.903045436216       2.854500000000
       188    2   0.000000       15.673349102730       8.004074058288       2.672850000000
       189    1   0.000000       22.362868977398       6.852021867895       3.911184000000
       190    2   0.000000       21.413813994547       6.663815321940       4.058580000000
       191    1   0.000000       15.296779364576       5.548426744395       3.601860000000
       192    2   0.000000       16.210806347427       5.736633290350       3.344436000000
       193    2   0.000000       15.311540577110       4.992769323003       4.395930000000
       194    3   0.000000       22.583432165164       2.558305429868       5.186886000000
       195    3   0.000000       15.534005130917       2.126489545209       2.326158000000
       196    3   0.000000       21.882026213248       7.446787142991       1.635888000000
       197    3   0.000000       15.161027582207       7.340870039207       5.134986000000
       198    3   0.000000       22.419880517844       4.864039304558       2.553480000000
       199    1   0.000000       18.693285993677       4.440370889421       8.348634000000
       200    2   0.000000       17.728795427148       4.386597590576       8.511600000000
       201    1   0.000000       19.016408776672       5.558203707821       7.363572000000
       202    2   0.000000       19.993750897634       5.655973342084       7.319976000000
       203    1   0.000000       18.513812921050       5.189938085433       5.984070000000
       204    2   0.000000       17.539865047064       5.089724210314       6.013134000000
       205    1   0.000000       19.156689777987       3.861900553368       5.579250000000
       206    2   0.000000       20.125375949956       3.960484934582       5.489982000000
       207    1   0.000000       18.820357153456       2.791323058194       6.630744000000
       208    2   0.000000       17.863521695405       2.582747838434       6.612060000000
       209    1   0.000000       19.660566364826       1.507281861546       6.357750000000
       210    2   0.000000       20.549580424286       1.757409175868       6.069186000000
       211    2   0.000000       19.741888731793       0.995620775573       7.178808000000
       212    3   0.000000       18.461849406837       6.794989581242       7.805760000000
       213    3   0.000000       18.851455231468       6.249109123276       5.105922000000
       214    3   0.000000       18.582315173178       3.373052382055       4.353372000000
       215    3   0.000000       19.209112461495       3.201955522096       7.929282000000
       216    3   0.000000       19.052619866892       0.700682378881       5.366460000000
       217    1   0.000000       22.564776656775       7.805275801954       0.449454000000
       218    2   0.000000       23.509846090634       7.994297094861       0.620724000000
       219    1   0.000000       30.170256225395       6.648335129848       9.844392000000
       220    2   0.000000       29.230339035694       6.373765406961       9.813252000000
       221    1   0.000000       22.856032199161       7.031266197376       8.461776000000
       222    2   0.000000       23.837868196538       7.069559304129       8.470080000000
       223    1   0.000000       31.053447302404       0.244424085656       8.044500000000
       224    2   0.000000       30.095160977410       0.143395463585       7.862850000000
       225    1   0.000000       23.405641102742       1.295447653978       9.101184000000
       226    2   0.000000       24.354696085594       1.483654199933       9.248580000000
       227    1   0.000000       30.471730715565       2.599042777477       8.791860000000
       228    2   0.000000       29.557703732714       2.410836231522       8.534436000000
       229    2   0.000000       30.456969503030       3.154700198869       9.585930000000
       230    3   0.000000       23.185077914976       5.589164092005      10.376886000000
       231    3   0.000000       30.234504949224       6.020979976664       7.516158000000
       232    3   0.000000       23.886483866892       0.700682378881       6.825888000000
       233    3   0.000000       30.607482497934       0.806599482665      10.324986000000
       234    3   0.000000       23.348629562297       3.283430217315       7.743480000000
       235    1   0.000000       27.075224086464       3.707098632452       3.158634000000
       236    2   0.000000       28.039714652993       3.760871931296       3.321600000000
       237    1   0.000000       26.752101303469       2.589265814051       2.173572000000
       238    2   0.000000       25.774759182507       2.491496179789       2.129976000000
       239    1   0.000000       27.254697159091       2.957531436440       0.794070000000
       240    2   0.000000       28.228645033077       3.057745311559       0.823134000000
       241    1   0.000000       26.611820302154       4.285568968505       0.389250000000
       242    2   0.000000       25.643134130184       4.186984587290       0.299982000000
       243    1   0.000000       26.948152926684       5.356146463679       1.440744000000
       244    2   0.000000       27.904988384736       5.564721683439       1.422060000000
       245    1   0.000000       26.107943715315       6.640187660326       1.167750000000
       246    2   0.000000       25.218929655854       6.390060346005       0.879186000000
       247    2   0.000000       26.026621348347       7.151848746300       1.988808000000
       248    3   0.000000       27.306660673303       1.352479940631       2.615760000000
       249    3   0.000000       26.917054848673       1.898360398596      10.295922000000
       250    3   0.000000       27.186194906962       4.774417139817       9.543372000000
       251    3   0.000000       26.559397618645       4.945513999777       2.739282000000
       252    3   0.000000       26.715890213248       7.446787142991       0.176460000000
       253    1   0.000000       30.987733423366       0.342193719919       5.639454000000
       254    2   0.000000       30.042663989507       0.153172427011       5.810724000000
       255    1   0.000000       23.382253854746       1.499134392025       4.654392000000
       256    2   0.000000       24.322171044447       1.773704114912       4.623252000000
       257    1   0.000000       30.696477880979       1.116203324497       3.271776000000
       258    2   0.000000       29.714641883603       1.077910217744       3.280080000000
       259    1   0.000000       22.499062777736       7.903045436216       2.854500000000
       260    2   0.000000       23.457349102730       8.004074058288       2.672850000000
       261    1   0.000000       30.146868977398       6.852021867895       3.911184000000
       262    2   0.000000       29.197813994547       6.663815321940       4.058580000000
       263    1   0.000000       23.080779364576       5.548426744395       3.601860000000
       264    2   0.000000       23.994806347427       5.736633290350       3.344436000000
       265    2   0.000000       23.095540577110       4.992769323003       4.395930000000
       266    3   0.000000       30.367432165164       2.558305429868       5.186886000000
       267    3   0.000000       23.318005130917       2.126489545209       2.326158000000
       268    3   0.000000       29.666026213248       7.446787142991       1.635888000000
       269    3   0.000000       22.945027582207       7.340870039207       5.134986000000
       270    3   0.000000       30.203880517844       4.864039304558       2.553480000000
       271    1   0.000000       26.477285993677       4.440370889421       8.348634000000
       272    2   0.000000       25.512795427148       4.386597590576       8.511600000000
       273    1   0.000000       26.800408776672       5.558203707821       7.363572000000
       274    2   0.000000       27.777750897634       5.655973342084       7.319976000000
       275    1   0.000000       26.297812921050       5.189938085433       5.984070000000
       276    2   0.000000       25.323865047064       5.089724210314       6.013134000000
       277    1   0.000000       26.940689777987       3.861900553368       5.579250000000
       278    2   0.000000       27.909375949956       3.960484934582       5.489982000000
       279    1   0.000000       26.604357153456       2.791323058194       6.630744000000
       280    2   0.000000       25.647521695405       2.582747838434       6.612060000000
       281    1   0.000000       27.444566364826       1.507281861546       6.357750000000
       282    2   0.000000       28.333580424286       1.757409175868       6.069186000000
       283    2   0.000000       27.525888731793       0.995620775573       7.178808000000
       284    3   0.000000       26.245849406837       6.794989581242       7.805760000000
       285    3   0.000000       26.635455231468       6.249109123276       5.105922000000
       286    3   0.000000       26.366315173178       3.373052382055       4.353372000000
       287    3   0.000000       26.993112461495       3.201955522096       7.929282000000
       288    3   0.000000       26.836619866892       0.700682378881       5.366460000000
       289    1   0.000000       -1.722713263085      15.952745323826       0.449454000000
       290    2   0.000000       -0.777643829226      16.141766616734       0.620724000000
       291    1   0.000000        5.882766305535      14.795804651720       9.844392000000
       292    2   0.000000        4.942849115835      14.521234928833       9.813252000000
       293    1   0.000000       -1.431457720698      15.178735719248       8.461776000000
       294    2   0.000000       -0.449621723321      15.217028826001       8.470080000000
       295    1   0.000000        6.765957382545       8.391893607529       8.044500000000
       296    2   0.000000        5.807671057551       8.290864985457       7.862850000000
       297    1   0.000000       -0.881848817117       9.442917175850       9.101184000000
       298    2   0.000000        0.067206165734       9.631123721805       9.248580000000
       299    1   0.000000        6.184240795705      10.746512299350       8.791860000000
       300    2   0.000000        5.270213812854      10.558305753395       8.534436000000
       301    2   0.000000        6.169479583171      11.302169720742       9.585930000000
       302    3   0.000000       -1.102412004883      13.736633613877      10.376886000000
       303    3   0.000000        5.947015029364      14.168449498536       7.516158000000
       304    3   0.000000       -0.401006052967       8.848151900754       6.825888000000
       305    3   0.000000        6.319992578074       8.954069004538      10.324986000000
       306    3   0.000000       -0.938860357563      11.430899739187       7.743480000000
       307    1   0.000000        2.787734166605      11.854568154324       3.158634000000
       308    2   0.000000        3.752224733133      11.908341453169       3.321600000000
       309    1   0.000000        2.464611383609      10.736735335924       2.173572000000
       310    2   0.000000        1.487269262648      10.638965701661       2.129976000000
       311    1   0.000000        2.967207239232      11.105000958312       0.794070000000
       312    2   0.000000        3.941155113217      11.205214833431       0.823134000000
       313    1   0.000000        2.324330382295      12.433038490377       0.389250000000
       314    2   0.000000        1.355644210325      12.334454109163       0.299982000000
       315    1   0.000000        2.660663006825      13.503615985551       1.440744000000
       316    2   0.000000        3.617498464877      13.712191205311       1.422060000000
       317    1   0.000000        1.820453795455      14.787657182199       1.167750000000
       318    2   0.000000        0.931439735995      14.537529867877       0.879186000000
       319    2   0.000000        1.739131428488      15.299318268172       1.988808000000
       320    3   0.000000        3.019170753444       9.499949462503       2.615760000000
       321    3   0.000000        2.629564928813      10.045829920469      10.295922000000
       322    3   0.000000        2.898704987103      12.921886661690       9.543372000000
       323    3   0.000000        2.271907698786      13.092983521649       2.739282000000
       324    3   0.000000        2.428400293389      15.594256664864       0.176460000000