# LAMMPS data file written by Ovito 3.10.6

3910 atoms
4 atom types

0.456061 49.856299 xlo xhi
1.957395 49.995656 ylo yhi
0.004344 49.23657 zlo zhi

Masses

1 12.0107  # C
2 1.00794  # H
3 15.9994  # O
4 14.0067  # N

Atoms  # full

1 1 1 0.0 28.346743 37.285204 39.167077
2 1 2 0.0 28.81692 37.474563 38.329453
3 1 1 0.0 28.725896 38.276651 40.269181
4 1 2 0.0 28.130208 38.169424 41.039847
5 1 1 0.0 30.161324 38.091699 40.698876
6 1 2 0.0 30.743021 38.432956 39.984191
7 1 1 0.0 30.499928 36.631779 40.924925
8 1 2 0.0 30.050948 36.356024 41.752006
9 1 1 0.0 30.015284 35.722487 39.83931
10 1 2 0.0 30.506043 35.913927 39.014278
11 1 1 0.0 30.141491 34.241021 40.153115
12 1 2 0.0 29.756307 34.062094 41.023207
13 1 2 0.0 29.652407 33.72899 39.491157
14 1 3 0.0 28.533436 39.565348 39.682261
15 1 3 0.0 30.411138 38.861018 41.893023
16 1 3 0.0 31.913098 36.436976 41.123563
17 1 3 0.0 28.610905 35.960799 39.62241
18 1 3 0.0 31.503533 33.853842 40.143544
19 1 2 0.0 27.674483 39.543083 39.217782
20 1 2 0.0 31.389568 38.911332 41.943464
21 1 2 0.0 31.589809 32.960312 40.53315
22 1 1 0.0 29.329368 34.940357 33.682422
23 1 2 0.0 29.78516 35.261964 32.877062
24 1 1 0.0 29.632576 35.840242 34.875511
25 1 2 0.0 29.066585 35.555326 35.627377
26 1 1 0.0 31.081456 35.681443 35.284321
27 1 2 0.0 31.657243 35.962679 34.543369
28 1 1 0.0 31.331441 34.205387 35.598141
29 1 2 0.0 30.805611 33.924161 36.37314
30 1 1 0.0 30.973484 33.354754 34.367677
31 1 2 0.0 31.601869 33.528982 33.636567
32 1 1 0.0 30.994872 31.844742 34.751206
33 1 2 0.0 30.633708 31.732316 35.641992
34 1 2 0.0 30.435218 31.34803 34.132666
35 1 3 0.0 29.323427 37.198491 34.573186
36 1 3 0.0 31.307572 36.522494 36.402062
37 1 3 0.0 32.732832 33.964073 35.821893
38 1 3 0.0 29.644121 33.595649 33.942206
39 1 3 0.0 32.310765 31.3249 34.706117
40 1 2 0.0 28.458201 37.186217 34.108291
41 1 2 0.0 32.18062 36.270086 36.775615
42 1 2 0.0 32.235333 30.361313 34.53032
43 1 1 0.0 24.32941 36.583045 35.8716
44 1 2 0.0 23.59486 36.396553 36.491434
45 1 1 0.0 25.470801 35.575112 36.022119
46 1 2 0.0 26.114557 35.681818 35.291052
47 1 1 0.0 26.169582 35.736924 37.350583
48 1 2 0.0 25.575067 35.395806 38.054709
49 1 1 0.0 26.475086 37.189861 37.65515
50 1 2 0.0 27.204461 37.462575 37.059058
51 1 1 0.0 25.328631 38.116837 37.397067
52 1 2 0.0 24.610351 37.927864 38.034667
53 1 1 0.0 25.679897 39.593127 37.476603
54 1 2 0.0 26.462441 39.767745 36.933857
55 1 2 0.0 24.943253 40.118447 37.128808
56 1 3 0.0 24.841302 34.295327 35.93191
57 1 3 0.0 27.379426 34.951779 37.358902
58 1 3 0.0 26.942968 37.364269 39.006121
59 1 3 0.0 24.843946 37.899008 36.057758
60 1 3 0.0 25.936137 39.96276 38.819313
61 1 2 0.0 24.221369 34.333626 35.178085
62 1 2 0.0 27.615508 34.888297 38.308974
63 1 2 0.0 26.346561 40.850905 38.838889
64 1 1 0.0 32.936872 40.270424 33.634463
65 1 2 0.0 33.407049 40.459783 32.796839
66 1 1 0.0 33.316025 41.261872 34.736566
67 1 2 0.0 32.720337 41.154644 35.507232
68 1 1 0.0 34.751453 41.07692 35.166261
69 1 2 0.0 35.33315 41.418177 34.451576
70 1 1 0.0 35.090057 39.617 35.39231
71 1 2 0.0 34.641077 39.341245 36.219392
72 1 1 0.0 34.605413 38.707708 34.306695
73 1 2 0.0 35.096172 38.899148 33.481663
74 1 1 0.0 34.73162 37.226242 34.6205
75 1 2 0.0 34.346436 37.047315 35.490592
76 1 2 0.0 34.242536 36.714211 33.958542
77 1 3 0.0 33.123565 42.550569 34.149646
78 1 3 0.0 35.001267 41.846239 36.360408
79 1 3 0.0 36.503227 39.422196 35.590948
80 1 3 0.0 33.201034 38.94602 34.089795
81 1 3 0.0 36.093662 36.839063 34.610929
82 1 2 0.0 32.264613 42.528304 33.685167
83 1 2 0.0 35.979697 41.896553 36.410849
84 1 2 0.0 36.179938 35.945533 35.000535
85 1 1 0.0 33.919497 37.925578 28.149807
86 1 2 0.0 34.375289 38.247184 27.344447
87 1 1 0.0 34.222705 38.825463 29.342896
88 1 2 0.0 33.656714 38.540546 30.094762
89 1 1 0.0 35.671585 38.666664 29.751706
90 1 2 0.0 36.247373 38.9479 29.010755
91 1 1 0.0 35.921571 37.190608 30.065526
92 1 2 0.0 35.39574 36.909382 30.840525
93 1 1 0.0 35.563613 36.339974 28.835062
94 1 2 0.0 36.191998 36.514203 28.103952
95 1 1 0.0 35.585001 34.829963 29.218591
96 1 2 0.0 35.223837 34.717537 30.109377
97 1 2 0.0 35.025347 34.333251 28.600051
98 1 3 0.0 33.913556 40.183712 29.040571
99 1 3 0.0 35.897701 39.507715 30.869447
100 1 3 0.0 37.322961 36.949294 30.289278
101 1 3 0.0 34.23425 36.58087 28.409591
102 1 3 0.0 36.900894 34.310121 29.173502
103 1 2 0.0 33.04833 40.171437 28.575676
104 1 2 0.0 36.770749 39.255307 31.243
105 1 2 0.0 36.825462 33.346533 28.997705
106 1 1 0.0 28.919539 39.568266 30.338985
107 1 2 0.0 28.184989 39.381774 30.958819
108 1 1 0.0 30.06093 38.560333 30.489504
109 1 2 0.0 30.704686 38.667039 29.758437
110 1 1 0.0 30.759712 38.722145 31.817968
111 1 2 0.0 30.165196 38.381027 32.522094
112 1 1 0.0 31.065215 40.175082 32.122535
113 1 2 0.0 31.79459 40.447796 31.526443
114 1 1 0.0 29.91876 41.102058 31.864452
115 1 2 0.0 29.20048 40.913085 32.502052
116 1 1 0.0 30.270026 42.578347 31.943989
117 1 2 0.0 31.05257 42.752966 31.401242
118 1 2 0.0 29.533382 43.103668 31.596193
119 1 3 0.0 29.431431 37.280548 30.399295
120 1 3 0.0 31.969556 37.937 31.826287
121 1 3 0.0 31.533098 40.34949 33.473506
122 1 3 0.0 29.434075 40.884228 30.525143
123 1 3 0.0 30.526266 42.947981 33.286698
124 1 2 0.0 28.811499 37.318847 29.64547
125 1 2 0.0 32.205637 37.873518 32.776359
126 1 2 0.0 30.93669 43.836125 33.306274
127 1 1 0.0 37.527001 43.255645 28.101848
128 1 2 0.0 37.997178 43.445004 27.264224
129 1 1 0.0 37.906155 44.247092 29.203951
130 1 2 0.0 37.310466 44.139865 29.974617
131 1 1 0.0 39.341582 44.062141 29.633646
132 1 2 0.0 39.923279 44.403397 28.918961
133 1 1 0.0 39.680186 42.60222 29.859695
134 1 2 0.0 39.231206 42.326466 30.686777
135 1 1 0.0 39.195542 41.692929 28.77408
136 1 2 0.0 39.686301 41.884369 27.949048
137 1 1 0.0 39.321749 40.211463 29.087885
138 1 2 0.0 38.936565 40.032536 29.957977
139 1 2 0.0 38.832665 39.699432 28.425927
140 1 3 0.0 37.713694 45.53579 28.617031
141 1 3 0.0 39.591396 44.83146 30.827793
142 1 3 0.0 41.093356 42.407417 30.058333
143 1 3 0.0 37.791163 41.93124 28.55718
144 1 3 0.0 40.683791 39.824284 29.078314
145 1 2 0.0 36.854742 45.513525 28.152552
146 1 2 0.0 40.569826 44.881774 30.878234
147 1 2 0.0 40.770067 38.930754 29.46792
148 1 1 0.0 38.509626 40.910799 22.617192
149 1 2 0.0 38.965418 41.232405 21.811832
150 1 1 0.0 38.812834 41.810683 23.810281
151 1 2 0.0 38.246844 41.525767 24.562148
152 1 1 0.0 40.261714 41.651885 24.219091
153 1 2 0.0 40.837502 41.933121 23.47814
154 1 1 0.0 40.5117 40.175829 24.532911
155 1 2 0.0 39.985869 39.894602 25.30791
156 1 1 0.0 40.153742 39.325195 23.302447
157 1 2 0.0 40.782127 39.499424 22.571337
158 1 1 0.0 40.17513 37.815184 23.685976
159 1 2 0.0 39.813966 37.702758 24.576762
160 1 2 0.0 39.615476 37.318472 23.067436
161 1 3 0.0 38.503685 43.168933 23.507956
162 1 3 0.0 40.48783 42.492936 25.336832
163 1 3 0.0 41.91309 39.934515 24.756664
164 1 3 0.0 38.824379 39.56609 22.876976
165 1 3 0.0 41.491023 37.295342 23.640887
166 1 2 0.0 37.638459 43.156658 23.043061
167 1 2 0.0 41.360878 42.240528 25.710385
168 1 2 0.0 41.415591 36.331754 23.465091
169 1 1 0.0 33.509668 42.553487 24.80637
170 1 2 0.0 32.775118 42.366995 25.426204
171 1 1 0.0 34.651059 41.545554 24.956889
172 1 2 0.0 35.294815 41.65226 24.225822
173 1 1 0.0 35.349841 41.707365 26.285353
174 1 2 0.0 34.755325 41.366248 26.989479
175 1 1 0.0 35.655344 43.160303 26.58992
176 1 2 0.0 36.38472 43.433017 25.993828
177 1 1 0.0 34.508889 44.087279 26.331837
178 1 2 0.0 33.790609 43.898306 26.969437
179 1 1 0.0 34.860155 45.563568 26.411374
180 1 2 0.0 35.642699 45.738187 25.868627
181 1 2 0.0 34.123511 46.088889 26.063578
182 1 3 0.0 34.02156 40.265768 24.866681
183 1 3 0.0 36.559685 40.922221 26.293672
184 1 3 0.0 36.123227 43.334711 27.940891
185 1 3 0.0 34.024204 43.869449 24.992528
186 1 3 0.0 35.116395 45.933202 27.754084
187 1 2 0.0 33.401628 40.304068 24.112855
188 1 2 0.0 36.795767 40.858738 27.243744
189 1 2 0.0 35.526819 46.821346 27.773659
190 1 1 0.0 42.11713 46.240866 22.569233
191 1 2 0.0 42.587307 46.430225 21.731609
192 1 1 0.0 42.496284 47.232313 23.671336
193 1 2 0.0 41.900595 47.125086 24.442002
194 1 1 0.0 43.931711 47.047362 24.101032
195 1 2 0.0 44.513408 47.388618 23.386346
196 1 1 0.0 44.270315 45.587441 24.32708
197 1 2 0.0 43.821335 45.311687 25.154162
198 1 1 0.0 43.785671 44.67815 23.241465
199 1 2 0.0 44.27643 44.86959 22.416433
200 1 1 0.0 43.911878 43.196684 23.55527
201 1 2 0.0 43.526694 43.017756 24.425362
202 1 2 0.0 43.422794 42.684652 22.893312
203 1 3 0.0 42.303823 48.521011 23.084416
204 1 3 0.0 44.181525 47.816681 25.295178
205 1 3 0.0 45.683485 45.392638 24.525719
206 1 3 0.0 42.381292 44.916461 23.024565
207 1 3 0.0 45.27392 42.809504 23.545699
208 1 2 0.0 41.444871 48.498746 22.619938
209 1 2 0.0 45.159955 47.866995 25.34562
210 1 2 0.0 45.360196 41.915974 23.935305
211 1 1 0.0 38.099798 45.538708 19.273755
212 1 2 0.0 37.365247 45.352215 19.893589
213 1 1 0.0 39.241188 44.530775 19.424274
214 1 2 0.0 39.884944 44.637481 18.693207
215 1 1 0.0 39.93997 44.692586 20.752738
216 1 2 0.0 39.345454 44.351469 21.456864
217 1 1 0.0 40.245473 46.145523 21.057305
218 1 2 0.0 40.974849 46.418238 20.461213
219 1 1 0.0 39.099018 47.0725 20.799222
220 1 2 0.0 38.380738 46.883527 21.436822
221 1 1 0.0 39.450284 48.548789 20.878759
222 1 2 0.0 40.232828 48.723408 20.336012
223 1 2 0.0 38.71364 49.07411 20.530963
224 1 3 0.0 38.611689 43.250989 19.334066
225 1 3 0.0 41.149814 43.907442 20.761057
226 1 3 0.0 40.713356 46.319932 22.408276
227 1 3 0.0 38.614333 46.85467 19.459913
228 1 3 0.0 39.706524 48.918422 22.221469
229 1 2 0.0 37.991757 43.289288 18.58024
230 1 2 0.0 41.385896 43.843959 21.711129
231 1 2 0.0 40.116948 49.806567 22.241044
232 1 1 0.0 29.737681 29.404225 37.37491
233 1 2 0.0 30.207858 29.593584 36.537286
234 1 1 0.0 30.116834 30.395672 38.477014
235 1 2 0.0 29.521146 30.288445 39.247679
236 1 1 0.0 31.552261 30.210721 38.906709
237 1 2 0.0 32.133959 30.551977 38.192024
238 1 1 0.0 31.890866 28.7508 39.132758
239 1 2 0.0 31.441886 28.475045 39.959839
240 1 1 0.0 31.406222 27.841508 38.047143
241 1 2 0.0 31.896981 28.032948 37.222111
242 1 1 0.0 31.532429 26.360042 38.360948
243 1 2 0.0 31.147245 26.181115 39.23104
244 1 2 0.0 31.043344 25.848011 37.69899
245 1 3 0.0 29.924374 31.684369 37.890094
246 1 3 0.0 31.802076 30.980039 40.100855
247 1 3 0.0 33.304036 28.555997 39.331396
248 1 3 0.0 30.001843 28.07982 37.830243
249 1 3 0.0 32.894471 25.972863 38.351377
250 1 2 0.0 29.065421 31.662104 37.425615
251 1 2 0.0 32.780506 31.030354 40.151297
252 1 2 0.0 32.980747 25.079333 38.740983
253 1 1 0.0 30.720306 27.059378 31.890255
254 1 2 0.0 31.176098 27.380985 31.084894
255 1 1 0.0 31.023514 27.959263 33.083343
256 1 2 0.0 30.457523 27.674347 33.83521
257 1 1 0.0 32.472394 27.800464 33.492154
258 1 2 0.0 33.048181 28.0817 32.751202
259 1 1 0.0 32.722379 26.324408 33.805974
260 1 2 0.0 32.196549 26.043182 34.580973
261 1 1 0.0 32.364422 25.473775 32.575509
262 1 2 0.0 32.992807 25.648003 31.8444
263 1 1 0.0 32.385809 23.963763 32.959039
264 1 2 0.0 32.024645 23.851337 33.849825
265 1 2 0.0 31.826156 23.467051 32.340499
266 1 3 0.0 30.714365 29.317512 32.781019
267 1 3 0.0 32.69851 28.641515 34.609894
268 1 3 0.0 34.12377 26.083094 34.029726
269 1 3 0.0 31.035059 25.71467 32.150039
270 1 3 0.0 33.701703 23.443921 32.91395
271 1 2 0.0 29.849139 29.305238 32.316123
272 1 2 0.0 33.571558 28.389107 34.983448
273 1 2 0.0 33.626271 22.480334 32.738153
274 1 1 0.0 25.720348 28.702067 34.079433
275 1 2 0.0 24.985798 28.515574 34.699267
276 1 1 0.0 26.861739 27.694133 34.229952
277 1 2 0.0 27.505495 27.800839 33.498884
278 1 1 0.0 27.56052 27.855945 35.558416
279 1 2 0.0 26.966005 27.514828 36.262542
280 1 1 0.0 27.866024 29.308882 35.862983
281 1 2 0.0 28.595399 29.581596 35.266891
282 1 1 0.0 26.719569 30.235858 35.604899
283 1 2 0.0 26.001289 30.046885 36.2425
284 1 1 0.0 27.070835 31.712148 35.684436
285 1 2 0.0 27.853379 31.886766 35.141689
286 1 2 0.0 26.334191 32.237468 35.336641
287 1 3 0.0 26.23224 26.414348 34.139743
288 1 3 0.0 28.770364 27.0708 35.566734
289 1 3 0.0 28.333906 29.48329 37.213953
290 1 3 0.0 26.234884 30.018029 34.265591
291 1 3 0.0 27.327075 32.081781 37.027146
292 1 2 0.0 25.612307 26.452647 33.385918
293 1 2 0.0 29.006446 27.007318 36.516807
294 1 2 0.0 27.737499 32.969926 37.046721
295 1 1 0.0 34.32781 32.389446 31.842295
296 1 2 0.0 34.797987 32.578804 31.004671
297 1 1 0.0 34.706963 33.380893 32.944399
298 1 2 0.0 34.111275 33.273665 33.715064
299 1 1 0.0 36.142391 33.195941 33.374094
300 1 2 0.0 36.724088 33.537198 32.659409
301 1 1 0.0 36.480995 31.736021 33.600143
302 1 2 0.0 36.032015 31.460266 34.427224
303 1 1 0.0 35.996351 30.826729 32.514528
304 1 2 0.0 36.48711 31.018169 31.689496
305 1 1 0.0 36.122558 29.345263 32.828333
306 1 2 0.0 35.737374 29.166336 33.698425
307 1 2 0.0 35.633474 28.833232 32.166375
308 1 3 0.0 34.514503 34.66959 32.357479
309 1 3 0.0 36.392205 33.96526 34.56824
310 1 3 0.0 37.894165 31.541217 33.798781
311 1 3 0.0 34.591972 31.065041 32.297628
312 1 3 0.0 37.4846 28.958084 32.818762
313 1 2 0.0 33.65555 34.647325 31.893
314 1 2 0.0 37.370635 34.015574 34.618682
315 1 2 0.0 37.570876 28.064554 33.208368
316 1 1 0.0 35.310435 30.044599 26.35764
317 1 2 0.0 35.766227 30.366205 25.55228
318 1 1 0.0 35.613643 30.944484 27.550728
319 1 2 0.0 35.047652 30.659567 28.302595
320 1 1 0.0 37.062523 30.785685 27.959539
321 1 2 0.0 37.638311 31.066921 27.218587
322 1 1 0.0 37.312509 29.309629 28.273359
323 1 2 0.0 36.786678 29.028403 29.048358
324 1 1 0.0 36.954551 28.458995 27.042894
325 1 2 0.0 37.582936 28.633224 26.311785
326 1 1 0.0 36.975939 26.948984 27.426424
327 1 2 0.0 36.614775 26.836558 28.31721
328 1 2 0.0 36.416285 26.452272 26.807884
329 1 3 0.0 35.304494 32.302733 27.248404
330 1 3 0.0 37.288639 31.626736 29.07728
331 1 3 0.0 38.713899 29.068315 28.497111
332 1 3 0.0 35.625188 28.699891 26.617424
333 1 3 0.0 38.291832 26.429142 27.381335
334 1 2 0.0 34.439268 32.290458 26.783508
335 1 2 0.0 38.161687 31.374328 29.450833
336 1 2 0.0 38.2164 25.465554 27.205538
337 1 1 0.0 30.310477 31.687287 28.546818
338 1 2 0.0 29.575927 31.500795 29.166652
339 1 1 0.0 31.451868 30.679354 28.697337
340 1 2 0.0 32.095624 30.78606 27.96627
341 1 1 0.0 32.15065 30.841166 30.025801
342 1 2 0.0 31.556134 30.500048 30.729927
343 1 1 0.0 32.456153 32.294103 30.330368
344 1 2 0.0 33.185528 32.566817 29.734276
345 1 1 0.0 31.309698 33.221079 30.072285
346 1 2 0.0 30.591418 33.032106 30.709885
347 1 1 0.0 31.660964 34.697368 30.151821
348 1 2 0.0 32.443508 34.871987 29.609074
349 1 2 0.0 30.92432 35.222689 29.804026
350 1 3 0.0 30.822369 29.399569 28.607128
351 1 3 0.0 33.360494 30.056021 30.034119
352 1 3 0.0 32.924036 32.468511 31.681338
353 1 3 0.0 30.825013 33.003249 28.732976
354 1 3 0.0 31.917204 35.067002 31.494531
355 1 2 0.0 30.202437 29.437868 27.853303
356 1 2 0.0 33.596575 29.992539 30.984192
357 1 2 0.0 32.327628 35.955146 31.514106
358 1 1 0.0 25.145956 34.077475 30.586431
359 1 2 0.0 24.438609 33.758596 31.184561
360 1 1 0.0 26.363292 33.161104 30.645966
361 1 2 0.0 26.996577 33.445291 29.949536
362 1 1 0.0 27.043814 33.296815 31.991354
363 1 2 0.0 26.423163 33.016066 32.695348
364 1 1 0.0 27.41871 34.766096 32.192311
365 1 2 0.0 28.082334 35.045829 31.530827
366 1 1 0.0 26.153579 35.634328 32.085677
367 1 2 0.0 25.554035 35.459787 32.840545
368 1 1 0.0 26.553585 37.13977 32.049292
369 1 2 0.0 27.360177 37.247367 31.525448
370 1 2 0.0 25.845852 37.650224 31.623759
371 1 3 0.0 25.989879 31.810255 30.385996
372 1 3 0.0 28.173209 32.441068 31.990283
373 1 3 0.0 27.909587 34.986894 33.527407
374 1 3 0.0 25.478516 35.415165 30.859903
375 1 3 0.0 26.76785 37.643022 33.354923
376 1 2 0.0 25.368208 31.838651 29.625988
377 1 2 0.0 28.710149 32.678188 32.778276
378 1 2 0.0 26.593329 38.60932 33.324809
379 1 1 0.0 38.917939 35.374666 26.30968
380 1 2 0.0 39.388116 35.564025 25.472056
381 1 1 0.0 39.297093 36.366113 27.411784
382 1 2 0.0 38.701404 36.258886 28.182449
383 1 1 0.0 40.73252 36.181162 27.841479
384 1 2 0.0 41.314217 36.522419 27.126794
385 1 1 0.0 41.071124 34.721242 28.067528
386 1 2 0.0 40.622144 34.445487 28.894609
387 1 1 0.0 40.58648 33.81195 26.981913
388 1 2 0.0 41.077239 34.00339 26.156881
389 1 1 0.0 40.712687 32.330484 27.295718
390 1 2 0.0 40.327503 32.151557 28.16581
391 1 2 0.0 40.223603 31.818453 26.63376
392 1 3 0.0 39.104632 37.654811 26.824864
393 1 3 0.0 40.982334 36.950481 29.035626
394 1 3 0.0 42.484294 34.526438 28.266166
395 1 3 0.0 39.182101 34.050261 26.765013
396 1 3 0.0 42.074729 31.943305 27.286147
397 1 2 0.0 38.24568 37.632546 26.360385
398 1 2 0.0 41.960764 37.000795 29.086067
399 1 2 0.0 42.161005 31.049775 27.675753
400 1 1 0.0 39.900564 33.02982 20.825025
401 1 2 0.0 40.356356 33.351426 20.019665
402 1 1 0.0 40.203772 33.929704 22.018113
403 1 2 0.0 39.637782 33.644788 22.76998
404 1 1 0.0 41.652652 33.770906 22.426924
405 1 2 0.0 42.22844 34.052142 21.685972
406 1 1 0.0 41.902638 32.29485 22.740744
407 1 2 0.0 41.376807 32.013623 23.515743
408 1 1 0.0 41.54468 31.444216 21.51028
409 1 2 0.0 42.173065 31.618445 20.77917
410 1 1 0.0 41.566068 29.934205 21.893809
411 1 2 0.0 41.204904 29.821779 22.784595
412 1 2 0.0 41.006414 29.437493 21.275269
413 1 3 0.0 39.894623 35.287954 21.715789
414 1 3 0.0 41.878768 34.611957 23.544665
415 1 3 0.0 43.304028 32.053536 22.964496
416 1 3 0.0 40.215317 31.685111 21.084809
417 1 3 0.0 42.881961 29.414363 21.84872
418 1 2 0.0 39.029397 35.275679 21.250893
419 1 2 0.0 42.751816 34.359549 23.918218
420 1 2 0.0 42.806529 28.450775 21.672923
421 1 1 0.0 34.900606 34.672508 23.014203
422 1 2 0.0 34.166056 34.486016 23.634037
423 1 1 0.0 36.041997 33.664575 23.164722
424 1 2 0.0 36.685753 33.771281 22.433655
425 1 1 0.0 36.740779 33.826387 24.493186
426 1 2 0.0 36.146263 33.485269 25.197312
427 1 1 0.0 37.046282 35.279324 24.797753
428 1 2 0.0 37.775658 35.552038 24.201661
429 1 1 0.0 35.899827 36.2063 24.53967
430 1 2 0.0 35.181547 36.017327 25.17727
431 1 1 0.0 36.251093 37.682589 24.619206
432 1 2 0.0 37.033637 37.857208 24.07646
433 1 2 0.0 35.514449 38.20791 24.271411
434 1 3 0.0 35.412498 32.384789 23.074513
435 1 3 0.0 37.950623 33.041242 24.501505
436 1 3 0.0 37.514165 35.453732 26.148724
437 1 3 0.0 35.415142 35.98847 23.200361
438 1 3 0.0 36.507333 38.052223 25.961916
439 1 2 0.0 34.792566 32.423089 22.320688
440 1 2 0.0 38.186704 32.97776 25.451577
441 1 2 0.0 36.917757 38.940367 25.981492
442 1 1 0.0 29.736085 37.062696 25.053816
443 1 2 0.0 29.028739 36.743817 25.651947
444 1 1 0.0 30.953421 36.146325 25.113351
445 1 2 0.0 31.586706 36.430512 24.416921
446 1 1 0.0 31.633943 36.282036 26.458739
447 1 2 0.0 31.013292 36.001286 27.162733
448 1 1 0.0 32.008839 37.751317 26.659696
449 1 2 0.0 32.672463 38.03105 25.998212
450 1 1 0.0 30.743708 38.619549 26.553062
451 1 2 0.0 30.144164 38.445008 27.30793
452 1 1 0.0 31.143714 40.124991 26.516677
453 1 2 0.0 31.950306 40.232588 25.992833
454 1 2 0.0 30.435981 40.635444 26.091144
455 1 3 0.0 30.580008 34.795476 24.853381
456 1 3 0.0 32.763338 35.426289 26.457668
457 1 3 0.0 32.499716 37.972115 27.994792
458 1 3 0.0 30.068645 38.400386 25.327288
459 1 3 0.0 31.357979 40.628243 27.822308
460 1 2 0.0 29.958337 34.823872 24.093373
461 1 2 0.0 33.300278 35.663409 27.245661
462 1 2 0.0 31.183458 41.59454 27.792194
463 1 1 0.0 43.508068 38.359887 20.777066
464 1 2 0.0 43.978245 38.549246 19.939441
465 1 1 0.0 43.887222 39.351334 21.879169
466 1 2 0.0 43.291533 39.244107 22.649835
467 1 1 0.0 45.322649 39.166383 22.308864
468 1 2 0.0 45.904346 39.507639 21.594179
469 1 1 0.0 45.661253 37.706462 22.534913
470 1 2 0.0 45.212273 37.430708 23.361994
471 1 1 0.0 45.176609 36.797171 21.449298
472 1 2 0.0 45.667368 36.988611 20.624266
473 1 1 0.0 45.302816 35.315705 21.763103
474 1 2 0.0 44.917632 35.136777 22.633195
475 1 2 0.0 44.813732 34.803674 21.101145
476 1 3 0.0 43.694761 40.640032 21.292249
477 1 3 0.0 45.572463 39.935702 23.503011
478 1 3 0.0 47.074423 37.511659 22.733551
479 1 3 0.0 43.77223 37.035482 21.232398
480 1 3 0.0 46.664858 34.928525 21.753532
481 1 2 0.0 42.835809 40.617767 20.82777
482 1 2 0.0 46.550893 39.986016 23.553452
483 1 2 0.0 46.751134 34.034995 22.143138
484 1 1 0.0 39.490735 37.657729 17.481588
485 1 2 0.0 38.756185 37.471236 18.101422
486 1 1 0.0 40.632126 36.649796 17.632107
487 1 2 0.0 41.275882 36.756502 16.90104
488 1 1 0.0 41.330908 36.811607 18.960571
489 1 2 0.0 40.736392 36.47049 19.664697
490 1 1 0.0 41.636411 38.264544 19.265138
491 1 2 0.0 42.365787 38.537259 18.669046
492 1 1 0.0 40.489956 39.191521 19.007055
493 1 2 0.0 39.771676 39.002548 19.644655
494 1 1 0.0 40.841222 40.66781 19.086592
495 1 2 0.0 41.623766 40.842429 18.543845
496 1 2 0.0 40.104578 41.193131 18.738796
497 1 3 0.0 40.002627 35.37001 17.541898
498 1 3 0.0 42.540752 36.026463 18.96889
499 1 3 0.0 42.104294 38.438953 20.616109
500 1 3 0.0 40.005271 38.973691 17.667746
501 1 3 0.0 41.097462 41.037443 20.429301
502 1 2 0.0 39.382695 35.40831 16.788073
503 1 2 0.0 42.776834 35.96298 19.918962
504 1 2 0.0 41.507886 41.925588 20.448877
505 1 1 0.0 34.326214 40.047917 19.521201
506 1 2 0.0 33.618868 39.729038 20.119332
507 1 1 0.0 35.54355 39.131546 19.580736
508 1 2 0.0 36.176835 39.415732 18.884306
509 1 1 0.0 36.224072 39.267257 20.926124
510 1 2 0.0 35.603422 38.986507 21.630118
511 1 1 0.0 36.598968 40.736538 21.127081
512 1 2 0.0 37.262593 41.01627 20.465597
513 1 1 0.0 35.333837 41.604769 21.020447
514 1 2 0.0 34.734293 41.430228 21.775315
515 1 1 0.0 35.733843 43.110212 20.984062
516 1 2 0.0 36.540435 43.217809 20.460219
517 1 2 0.0 35.02611 43.620665 20.558529
518 1 3 0.0 35.170137 37.780697 19.320766
519 1 3 0.0 37.353467 38.411509 20.925053
520 1 3 0.0 37.089845 40.957336 22.462177
521 1 3 0.0 34.658774 41.385607 19.794673
522 1 3 0.0 35.948108 43.613464 22.289693
523 1 2 0.0 34.548466 37.809093 18.560758
524 1 2 0.0 37.890407 38.64863 21.713046
525 1 2 0.0 35.773587 44.579761 22.259579
526 1 1 0.0 31.128619 21.523246 35.582743
527 1 2 0.0 31.598796 21.712605 34.745119
528 1 1 0.0 31.507772 22.514693 36.684847
529 1 2 0.0 30.912083 22.407466 37.455512
530 1 1 0.0 32.943199 22.329742 37.114542
531 1 2 0.0 33.524897 22.670998 36.399857
532 1 1 0.0 33.281804 20.869821 37.340591
533 1 2 0.0 32.832824 20.594067 38.167672
534 1 1 0.0 32.79716 19.960529 36.254976
535 1 2 0.0 33.287919 20.151969 35.429944
536 1 1 0.0 32.923367 18.479063 36.568781
537 1 2 0.0 32.538183 18.300136 37.438873
538 1 2 0.0 32.434282 17.967032 35.906823
539 1 3 0.0 31.315312 23.80339 36.097926
540 1 3 0.0 33.193014 23.09906 38.308688
541 1 3 0.0 34.694974 20.675018 37.539229
542 1 3 0.0 31.392781 20.198841 36.038076
543 1 3 0.0 34.285409 18.091884 36.55921
544 1 2 0.0 30.456359 23.781125 35.633448
545 1 2 0.0 34.171444 23.149375 38.35913
546 1 2 0.0 34.371685 17.198354 36.948816
547 1 1 0.0 32.111244 19.178399 30.098088
548 1 2 0.0 32.567036 19.500006 29.292727
549 1 1 0.0 32.414452 20.078284 31.291176
550 1 2 0.0 31.848461 19.793368 32.043043
551 1 1 0.0 33.863332 19.919485 31.699987
552 1 2 0.0 34.439119 20.200721 30.959035
553 1 1 0.0 34.113317 18.443429 32.013806
554 1 2 0.0 33.587487 18.162203 32.788805
555 1 1 0.0 33.75536 17.592796 30.783342
556 1 2 0.0 34.383745 17.767024 30.052233
557 1 1 0.0 33.776747 16.082784 31.166871
558 1 2 0.0 33.415583 15.970358 32.057658
559 1 2 0.0 33.217094 15.586072 30.548332
560 1 3 0.0 32.105303 21.436533 30.988851
561 1 3 0.0 34.089448 20.760536 32.817727
562 1 3 0.0 35.514708 18.202115 32.237559
563 1 3 0.0 32.425997 17.833691 30.357872
564 1 3 0.0 35.092641 15.562942 31.121782
565 1 2 0.0 31.240077 21.424259 30.523956
566 1 2 0.0 34.962496 20.508128 33.19128
567 1 2 0.0 35.017209 14.599355 30.945986
568 1 1 0.0 27.111286 20.821088 32.287266
569 1 2 0.0 26.376736 20.634595 32.9071
570 1 1 0.0 28.252676 19.813154 32.437785
571 1 2 0.0 28.896433 19.91986 31.706717
572 1 1 0.0 28.951458 19.974966 33.766249
573 1 2 0.0 28.356943 19.633849 34.470374
574 1 1 0.0 29.256962 21.427903 34.070815
575 1 2 0.0 29.986337 21.700617 33.474723
576 1 1 0.0 28.110507 22.354879 33.812732
577 1 2 0.0 27.392227 22.165906 34.450333
578 1 1 0.0 28.461773 23.831169 33.892269
579 1 2 0.0 29.244317 24.005788 33.349522
580 1 2 0.0 27.725129 24.356489 33.544473
581 1 3 0.0 27.623178 18.533369 32.347576
582 1 3 0.0 30.161302 19.189821 33.774567
583 1 3 0.0 29.724844 21.602311 35.421786
584 1 3 0.0 27.625822 22.13705 32.473423
585 1 3 0.0 28.718013 24.200802 35.234979
586 1 2 0.0 27.003245 18.571668 31.59375
587 1 2 0.0 30.397384 19.126339 34.724639
588 1 2 0.0 29.128437 25.088947 35.254554
589 1 1 0.0 35.718748 24.508467 30.050128
590 1 2 0.0 36.188925 24.697825 29.212504
591 1 1 0.0 36.097901 25.499914 31.152232
592 1 2 0.0 35.502213 25.392687 31.922897
593 1 1 0.0 37.533329 25.314962 31.581927
594 1 2 0.0 38.115026 25.656219 30.867242
595 1 1 0.0 37.871933 23.855042 31.807976
596 1 2 0.0 37.422953 23.579287 32.635057
597 1 1 0.0 37.387289 22.94575 30.722361
598 1 2 0.0 37.878048 23.13719 29.897329
599 1 1 0.0 37.513496 21.464284 31.036166
600 1 2 0.0 37.128312 21.285357 31.906258
601 1 2 0.0 37.024412 20.952253 30.374208
602 1 3 0.0 35.905441 26.788611 30.565311
603 1 3 0.0 37.783143 26.084281 32.776073
604 1 3 0.0 39.285103 23.660239 32.006614
605 1 3 0.0 35.98291 23.184062 30.505461
606 1 3 0.0 38.875538 21.077105 31.026595
607 1 2 0.0 35.046488 26.766346 30.100833
608 1 2 0.0 38.761573 26.134595 32.826515
609 1 2 0.0 38.961814 20.183575 31.416201
610 1 1 0.0 36.701373 22.16362 24.565473
611 1 2 0.0 37.157165 22.485227 23.760112
612 1 1 0.0 37.004581 23.063505 25.758561
613 1 2 0.0 36.43859 22.778589 26.510428
614 1 1 0.0 38.453461 22.904706 26.167372
615 1 2 0.0 39.029248 23.185942 25.42642
616 1 1 0.0 38.703447 21.42865 26.481192
617 1 2 0.0 38.177616 21.147424 27.25619
618 1 1 0.0 38.345489 20.578016 25.250727
619 1 2 0.0 38.973874 20.752245 24.519618
620 1 1 0.0 38.366877 19.068005 25.634256
621 1 2 0.0 38.005713 18.955579 26.525043
622 1 2 0.0 37.807223 18.571293 25.015717
623 1 3 0.0 36.695432 24.421754 25.456236
624 1 3 0.0 38.679577 23.745757 27.285112
625 1 3 0.0 40.104837 21.187336 26.704944
626 1 3 0.0 37.016126 20.818912 24.825257
627 1 3 0.0 39.68277 18.548163 25.589168
628 1 2 0.0 35.830206 24.40948 24.991341
629 1 2 0.0 39.552625 23.493349 27.658665
630 1 2 0.0 39.607338 17.584576 25.413371
631 1 1 0.0 31.701415 23.806308 26.754651
632 1 2 0.0 30.966865 23.619816 27.374485
633 1 1 0.0 32.842806 22.798375 26.90517
634 1 2 0.0 33.486562 22.905081 26.174102
635 1 1 0.0 33.541588 22.960187 28.233634
636 1 2 0.0 32.947072 22.619069 28.937759
637 1 1 0.0 33.847091 24.413124 28.538201
638 1 2 0.0 34.576466 24.685838 27.942109
639 1 1 0.0 32.700636 25.3401 28.280117
640 1 2 0.0 31.982356 25.151127 28.917718
641 1 1 0.0 33.051902 26.81639 28.359654
642 1 2 0.0 33.834446 26.991008 27.816907
643 1 2 0.0 32.315258 27.34171 28.011859
644 1 3 0.0 32.213307 21.51859 26.814961
645 1 3 0.0 34.751431 22.175042 28.241952
646 1 3 0.0 34.314973 24.587532 29.889171
647 1 3 0.0 32.215951 25.12227 26.940809
648 1 3 0.0 33.308142 27.186023 29.702364
649 1 2 0.0 31.593374 21.556889 26.061135
650 1 2 0.0 34.987513 22.11156 29.192025
651 1 2 0.0 33.718566 28.074168 29.721939
652 1 1 0.0 26.536894 26.196496 28.794264
653 1 2 0.0 25.829547 25.877617 29.392394
654 1 1 0.0 27.75423 25.280125 28.853798
655 1 2 0.0 28.387515 25.564312 28.157369
656 1 1 0.0 28.434752 25.415836 30.199187
657 1 2 0.0 27.814101 25.135087 30.903181
658 1 1 0.0 28.809648 26.885117 30.400144
659 1 2 0.0 29.473272 27.16485 29.73866
660 1 1 0.0 27.544517 27.753349 30.293509
661 1 2 0.0 26.944973 27.578808 31.048378
662 1 1 0.0 27.944523 29.258791 30.257124
663 1 2 0.0 28.751115 29.366388 29.733281
664 1 2 0.0 27.23679 29.769245 29.831592
665 1 3 0.0 27.380816 23.929276 28.593829
666 1 3 0.0 29.564147 24.560089 30.198115
667 1 3 0.0 29.300525 27.105915 31.73524
668 1 3 0.0 26.869454 27.534186 29.067736
669 1 3 0.0 28.158788 29.762043 31.562755
670 1 2 0.0 26.759146 23.957672 27.83382
671 1 2 0.0 30.101087 24.797209 30.986109
672 1 2 0.0 27.984267 30.728341 31.532641
673 1 1 0.0 40.308877 27.493687 24.517513
674 1 2 0.0 40.779054 27.683046 23.679889
675 1 1 0.0 40.68803 28.485134 25.619617
676 1 2 0.0 40.092342 28.377907 26.390282
677 1 1 0.0 42.123458 28.300183 26.049312
678 1 2 0.0 42.705155 28.64144 25.334627
679 1 1 0.0 42.462062 26.840263 26.275361
680 1 2 0.0 42.013082 26.564508 27.102442
681 1 1 0.0 41.977418 25.930971 25.189746
682 1 2 0.0 42.468177 26.122411 24.364714
683 1 1 0.0 42.103625 24.449505 25.503551
684 1 2 0.0 41.718441 24.270578 26.373643
685 1 2 0.0 41.614541 23.937474 24.841593
686 1 3 0.0 40.49557 29.773832 25.032697
687 1 3 0.0 42.373272 29.069502 27.243458
688 1 3 0.0 43.875232 26.645459 26.473999
689 1 3 0.0 40.573039 26.169282 24.972846
690 1 3 0.0 43.465667 24.062326 25.49398
691 1 2 0.0 39.636618 29.751567 24.568218
692 1 2 0.0 43.351702 29.119816 27.2939
693 1 2 0.0 43.551943 23.168796 25.883586
694 1 1 0.0 41.291502 25.148841 19.032858
695 1 2 0.0 41.747294 25.470447 18.227497
696 1 1 0.0 41.59471 26.048725 20.225946
697 1 2 0.0 41.02872 25.763809 20.977813
698 1 1 0.0 43.04359 25.889927 20.634757
699 1 2 0.0 43.619378 26.171163 19.893805
700 1 1 0.0 43.293576 24.413871 20.948577
701 1 2 0.0 42.767745 24.132644 21.723575
702 1 1 0.0 42.935618 23.563237 19.718112
703 1 2 0.0 43.564003 23.737466 18.987003
704 1 1 0.0 42.957006 22.053226 20.101641
705 1 2 0.0 42.595842 21.9408 20.992428
706 1 2 0.0 42.397352 21.556514 19.483102
707 1 3 0.0 41.285561 27.406975 19.923622
708 1 3 0.0 43.269706 26.730978 21.752497
709 1 3 0.0 44.694966 24.172557 21.172329
710 1 3 0.0 41.606255 23.804132 19.292642
711 1 3 0.0 44.272899 21.533384 20.056553
712 1 2 0.0 40.420335 27.3947 19.458726
713 1 2 0.0 44.142754 26.47857 22.126051
714 1 2 0.0 44.197467 20.569796 19.880756
715 1 1 0.0 36.291544 26.791529 21.222036
716 1 2 0.0 35.556994 26.605037 21.84187